121276461
  -OEChem-11182407202D

 90 97  0     0  0  0  0  0  0999 V2000
    5.5229   -3.6552    0.0000 S   0  0  0  0  0  0  0  0  0  0  0  0
    9.9267   -4.9570    0.0000 F   0  0  0  0  0  0  0  0  0  0  0  0
    2.0000    6.6842    0.0000 O   0  0  0  0  0  0  0  0  0  0  0  0
    5.2752    4.7018    0.0000 O   0  0  0  0  0  0  0  0  0  0  0  0
    3.4558    0.4959    0.0000 O   0  0  0  0  0  0  0  0  0  0  0  0
    6.3717   -5.5590    0.0000 O   0  0  0  0  0  0  0  0  0  0  0  0
    5.4047    6.4290    0.0000 N   0  0  0  0  0  0  0  0  0  0  0  0
    6.9652    7.1806    0.0000 N   0  0  0  0  0  0  0  0  0  0  0  0
    6.7063    3.7261    0.0000 N   0  0  0  0  0  0  0  0  0  0  0  0
    4.8869   -0.4798    0.0000 N   0  0  0  0  0  0  0  0  0  0  0  0
    7.9323   -4.8075    0.0000 N   0  0  0  0  0  0  0  0  0  0  0  0
    3.9944    6.5347    0.0000 C   0  0  0  0  0  0  0  0  0  0  0  0
    4.7524    7.1870    0.0000 C   0  0  0  0  0  0  0  0  0  0  0  0
    4.6467    5.7768    0.0000 C   0  0  0  0  0  0  0  0  0  0  0  0
    3.4311    5.7085    0.0000 C   0  0  0  0  0  0  0  0  0  0  0  0
    3.5605    7.4357    0.0000 C   0  0  0  0  0  0  0  0  0  0  0  0
    2.4339    5.7832    0.0000 C   0  0  0  0  0  0  0  0  0  0  0  0
    2.5633    7.5104    0.0000 C   0  0  0  0  0  0  0  0  0  0  0  0
    6.4019    6.3543    0.0000 C   0  0  0  0  0  0  0  0  0  0  0  0
    6.8358    5.4533    0.0000 C   0  0  0  0  0  0  0  0  0  0  0  0
    7.8330    5.3786    0.0000 C   0  0  0  0  0  0  0  0  0  0  0  0
    7.9624    7.1058    0.0000 C   0  0  0  0  0  0  0  0  0  0  0  0
    6.2724    4.6271    0.0000 C   0  0  0  0  0  0  0  0  0  0  0  0
    8.3963    6.2049    0.0000 C   0  0  0  0  0  0  0  0  0  0  0  0
    9.3935    6.1301    0.0000 C   0  0  0  0  0  0  0  0  0  0  0  0
    6.1430    2.8999    0.0000 C   0  0  0  0  0  0  0  0  0  0  0  0
    6.5769    1.9989    0.0000 C   0  0  0  0  0  0  0  0  0  0  0  0
    5.1458    2.9746    0.0000 C   0  0  0  0  0  0  0  0  0  0  0  0
    5.0164    1.2474    0.0000 C   0  0  0  0  0  0  0  0  0  0  0  0
    6.0136    1.1727    0.0000 C   0  0  0  0  0  0  0  0  0  0  0  0
    4.5825    2.1484    0.0000 C   0  0  0  0  0  0  0  0  0  0  0  0
    5.8869   -0.4798    0.0000 C   0  0  0  0  0  0  0  0  0  0  0  0
    6.5104   -1.2616    0.0000 C   0  0  0  0  0  0  0  0  0  0  0  0
    6.2879   -2.2365    0.0000 C   0  0  0  0  0  0  0  0  0  0  0  0
    4.2634   -1.2616    0.0000 C   0  0  0  0  0  0  0  0  0  0  0  0
    4.4530    0.4212    0.0000 C   0  0  0  0  0  0  0  0  0  0  0  0
    4.4860   -2.2365    0.0000 C   0  0  0  0  0  0  0  0  0  0  0  0
    5.3869   -2.6704    0.0000 C   0  0  0  0  0  0  0  0  0  0  0  0
    6.9730   -2.9569    0.0000 C   0  0  0  0  0  0  0  0  0  0  0  0
    3.2729   -0.9393    0.0000 C   0  0  0  0  0  0  0  0  0  0  0  0
    6.5012   -3.8318    0.0000 C   0  0  0  0  0  0  0  0  0  0  0  0
    3.7334   -2.9567    0.0000 C   0  0  0  0  0  0  0  0  0  0  0  0
    2.5039   -1.6419    0.0000 C   0  0  0  0  0  0  0  0  0  0  0  0
    2.7357   -2.6574    0.0000 C   0  0  0  0  0  0  0  0  0  0  0  0
    6.9351   -4.7328    0.0000 C   0  0  0  0  0  0  0  0  0  0  0  0
    8.3662   -5.7085    0.0000 C   0  0  0  0  0  0  0  0  0  0  0  0
    7.8028   -6.5347    0.0000 C   0  0  0  0  0  0  0  0  0  0  0  0
    9.3634   -5.7832    0.0000 C   0  0  0  0  0  0  0  0  0  0  0  0
    8.2367   -7.4357    0.0000 C   0  0  0  0  0  0  0  0  0  0  0  0
    6.8056   -6.4600    0.0000 C   0  0  0  0  0  0  0  0  0  0  0  0
    9.7972   -6.6842    0.0000 C   0  0  0  0  0  0  0  0  0  0  0  0
    9.2339   -7.5104    0.0000 C   0  0  0  0  0  0  0  0  0  0  0  0
    5.2223    7.5914    0.0000 H   0  0  0  0  0  0  0  0  0  0  0  0
    4.3480    7.6570    0.0000 H   0  0  0  0  0  0  0  0  0  0  0  0
    4.1768    5.3723    0.0000 H   0  0  0  0  0  0  0  0  0  0  0  0
    5.0511    5.3068    0.0000 H   0  0  0  0  0  0  0  0  0  0  0  0
    3.2781    5.1077    0.0000 H   0  0  0  0  0  0  0  0  0  0  0  0
    3.9962    5.4535    0.0000 H   0  0  0  0  0  0  0  0  0  0  0  0
    4.1574    7.6036    0.0000 H   0  0  0  0  0  0  0  0  0  0  0  0
    3.4988    8.0526    0.0000 H   0  0  0  0  0  0  0  0  0  0  0  0
    1.8371    5.6153    0.0000 H   0  0  0  0  0  0  0  0  0  0  0  0
    2.4956    5.1663    0.0000 H   0  0  0  0  0  0  0  0  0  0  0  0
    2.7163    8.1112    0.0000 H   0  0  0  0  0  0  0  0  0  0  0  0
    1.9982    7.7654    0.0000 H   0  0  0  0  0  0  0  0  0  0  0  0
    8.1020    4.8200    0.0000 H   0  0  0  0  0  0  0  0  0  0  0  0
    8.3116    7.6181    0.0000 H   0  0  0  0  0  0  0  0  0  0  0  0
    9.3471    5.5118    0.0000 H   0  0  0  0  0  0  0  0  0  0  0  0
   10.0117    6.0838    0.0000 H   0  0  0  0  0  0  0  0  0  0  0  0
    9.4398    6.7484    0.0000 H   0  0  0  0  0  0  0  0  0  0  0  0
    7.3246    3.6798    0.0000 H   0  0  0  0  0  0  0  0  0  0  0  0
    7.1952    1.9526    0.0000 H   0  0  0  0  0  0  0  0  0  0  0  0
    4.8768    3.5332    0.0000 H   0  0  0  0  0  0  0  0  0  0  0  0
    6.4455   -0.2108    0.0000 H   0  0  0  0  0  0  0  0  0  0  0  0
    5.7490    0.1247    0.0000 H   0  0  0  0  0  0  0  0  0  0  0  0
    6.2826    0.6141    0.0000 H   0  0  0  0  0  0  0  0  0  0  0  0
    3.9642    2.1947    0.0000 H   0  0  0  0  0  0  0  0  0  0  0  0
    7.0690   -1.5306    0.0000 H   0  0  0  0  0  0  0  0  0  0  0  0
    6.8970   -0.7769    0.0000 H   0  0  0  0  0  0  0  0  0  0  0  0
    7.5875   -2.8747    0.0000 H   0  0  0  0  0  0  0  0  0  0  0  0
    3.1420   -0.3333    0.0000 H   0  0  0  0  0  0  0  0  0  0  0  0
    3.8783   -3.5596    0.0000 H   0  0  0  0  0  0  0  0  0  0  0  0
    1.9122   -1.4568    0.0000 H   0  0  0  0  0  0  0  0  0  0  0  0
    2.2828   -3.0808    0.0000 H   0  0  0  0  0  0  0  0  0  0  0  0
    8.2815   -4.2952    0.0000 H   0  0  0  0  0  0  0  0  0  0  0  0
    7.8874   -7.9480    0.0000 H   0  0  0  0  0  0  0  0  0  0  0  0
    6.8520   -5.8417    0.0000 H   0  0  0  0  0  0  0  0  0  0  0  0
    6.1874   -6.4137    0.0000 H   0  0  0  0  0  0  0  0  0  0  0  0
    6.7593   -7.0783    0.0000 H   0  0  0  0  0  0  0  0  0  0  0  0
   10.4155   -6.7305    0.0000 H   0  0  0  0  0  0  0  0  0  0  0  0
    9.5029   -8.0690    0.0000 H   0  0  0  0  0  0  0  0  0  0  0  0
  1 38  1  0  0  0  0
  1 41  1  0  0  0  0
  2 48  1  0  0  0  0
  3 17  1  0  0  0  0
  3 18  1  0  0  0  0
  4 23  2  0  0  0  0
  5 36  2  0  0  0  0
  6 45  2  0  0  0  0
  7 13  1  0  0  0  0
  7 14  1  0  0  0  0
  7 19  1  0  0  0  0
  8 19  1  0  0  0  0
  8 22  2  0  0  0  0
  9 23  1  0  0  0  0
  9 26  1  0  0  0  0
  9 70  1  0  0  0  0
 10 32  1  0  0  0  0
 10 35  1  0  0  0  0
 10 36  1  0  0  0  0
 11 45  1  0  0  0  0
 11 46  1  0  0  0  0
 11 84  1  0  0  0  0
 12 13  1  0  0  0  0
 12 14  1  0  0  0  0
 12 15  1  0  0  0  0
 12 16  1  0  0  0  0
 13 53  1  0  0  0  0
 13 54  1  0  0  0  0
 14 55  1  0  0  0  0
 14 56  1  0  0  0  0
 15 17  1  0  0  0  0
 15 57  1  0  0  0  0
 15 58  1  0  0  0  0
 16 18  1  0  0  0  0
 16 59  1  0  0  0  0
 16 60  1  0  0  0  0
 17 61  1  0  0  0  0
 17 62  1  0  0  0  0
 18 63  1  0  0  0  0
 18 64  1  0  0  0  0
 19 20  2  0  0  0  0
 20 21  1  0  0  0  0
 20 23  1  0  0  0  0
 21 24  2  0  0  0  0
 21 65  1  0  0  0  0
 22 24  1  0  0  0  0
 22 66  1  0  0  0  0
 24 25  1  0  0  0  0
 25 67  1  0  0  0  0
 25 68  1  0  0  0  0
 25 69  1  0  0  0  0
 26 27  2  0  0  0  0
 26 28  1  0  0  0  0
 27 30  1  0  0  0  0
 27 71  1  0  0  0  0
 28 31  2  0  0  0  0
 28 72  1  0  0  0  0
 29 30  2  0  0  0  0
 29 31  1  0  0  0  0
 29 36  1  0  0  0  0
 30 75  1  0  0  0  0
 31 76  1  0  0  0  0
 32 33  1  0  0  0  0
 32 73  1  0  0  0  0
 32 74  1  0  0  0  0
 33 34  1  0  0  0  0
 33 77  1  0  0  0  0
 33 78  1  0  0  0  0
 34 38  2  0  0  0  0
 34 39  1  0  0  0  0
 35 37  1  0  0  0  0
 35 40  2  0  0  0  0
 37 38  1  0  0  0  0
 37 42  2  0  0  0  0
 39 41  2  0  0  0  0
 39 79  1  0  0  0  0
 40 43  1  0  0  0  0
 40 80  1  0  0  0  0
 41 45  1  0  0  0  0
 42 44  1  0  0  0  0
 42 81  1  0  0  0  0
 43 44  2  0  0  0  0
 43 82  1  0  0  0  0
 44 83  1  0  0  0  0
 46 47  2  0  0  0  0
 46 48  1  0  0  0  0
 47 49  1  0  0  0  0
 47 50  1  0  0  0  0
 48 51  2  0  0  0  0
 49 52  2  0  0  0  0
 49 85  1  0  0  0  0
 50 86  1  0  0  0  0
 50 87  1  0  0  0  0
 50 88  1  0  0  0  0
 51 52  1  0  0  0  0
 51 89  1  0  0  0  0
 52 90  1  0  0  0  0
M  END
> <PUBCHEM_COMPOUND_CID>
121276461

> <PUBCHEM_COMPOUND_CANONICALIZED>
1

> <PUBCHEM_CACTVS_COMPLEXITY>
1290

> <PUBCHEM_CACTVS_HBOND_ACCEPTOR>
8

> <PUBCHEM_CACTVS_HBOND_DONOR>
2

> <PUBCHEM_CACTVS_ROTATABLE_BOND>
6

> <PUBCHEM_CACTVS_SUBSKEYS>
AAADcfB/uQBAAAAAAAAAAAAAAABYASAAAAA8aMECBYAAAACx9AAAHwQQAAAADgjh2g4/8ZPIFAisAjd3dACDgKk1CjBJ2DkoZNiIIPrg3ZGGIYhslgLoyee4icCfCAAAAAACAAAQAAAAAAQAAAAAAAAAAA==

> <PUBCHEM_IUPAC_OPENEYE_NAME>
N-(2-fluoro-6-methyl-phenyl)-6-[4-[[5-methyl-2-(7-oxa-2-azaspiro[3.5]nonan-2-yl)pyridine-3-carbonyl]amino]benzoyl]-4,5-dihydrothieno[3,2-d][1]benzazepine-2-carboxamide

> <PUBCHEM_IUPAC_CAS_NAME>
N-(2-fluoro-6-methylphenyl)-6-[[4-[[[5-methyl-2-(7-oxa-2-azaspiro[3.5]nonan-2-yl)-3-pyridinyl]-oxomethyl]amino]phenyl]-oxomethyl]-4,5-dihydrothieno[3,2-d][1]benzazepine-2-carboxamide

> <PUBCHEM_IUPAC_NAME_MARKUP>
<I>N</I>-(2-fluoro-6-methylphenyl)-6-[4-[[5-methyl-2-(7-oxa-2-azaspiro[3.5]nonan-2-yl)pyridine-3-carbonyl]amino]benzoyl]-4,5-dihydrothieno[3,2-d][1]benzazepine-2-carboxamide

> <PUBCHEM_IUPAC_NAME>
N-(2-fluoro-6-methylphenyl)-6-[4-[[5-methyl-2-(7-oxa-2-azaspiro[3.5]nonan-2-yl)pyridine-3-carbonyl]amino]benzoyl]-4,5-dihydrothieno[3,2-d][1]benzazepine-2-carboxamide

> <PUBCHEM_IUPAC_SYSTEMATIC_NAME>
N-(2-fluoranyl-6-methyl-phenyl)-6-[4-[[5-methyl-2-(7-oxa-2-azaspiro[3.5]nonan-2-yl)pyridin-3-yl]carbonylamino]phenyl]carbonyl-4,5-dihydrothieno[3,2-d][1]benzazepine-2-carboxamide

> <PUBCHEM_IUPAC_TRADITIONAL_NAME>
N-(2-fluoro-6-methyl-phenyl)-6-[4-[[5-methyl-2-(7-oxa-2-azaspiro[3.5]nonan-2-yl)nicotinoyl]amino]benzoyl]-4,5-dihydrothieno[3,2-d][1]benzazepine-2-carboxamide

> <PUBCHEM_IUPAC_INCHI>
InChI=1S/C41H38FN5O4S/c1-25-20-31(37(43-22-25)46-23-41(24-46)15-18-51-19-16-41)38(48)44-29-12-10-27(11-13-29)40(50)47-17-14-28-21-34(52-36(28)30-7-3-4-9-33(30)47)39(49)45-35-26(2)6-5-8-32(35)42/h3-13,20-22H,14-19,23-24H2,1-2H3,(H,44,48)(H,45,49)

> <PUBCHEM_IUPAC_INCHIKEY>
VTCJNYICQADBJD-UHFFFAOYSA-N

> <PUBCHEM_XLOGP3_AA>
6.8

> <PUBCHEM_EXACT_MASS>
715.26285405

> <PUBCHEM_MOLECULAR_FORMULA>
C41H38FN5O4S

> <PUBCHEM_MOLECULAR_WEIGHT>
715.8

> <PUBCHEM_OPENEYE_CAN_SMILES>
CC1=C(C(=CC=C1)F)NC(=O)C2=CC3=C(S2)C4=CC=CC=C4N(CC3)C(=O)C5=CC=C(C=C5)NC(=O)C6=C(N=CC(=C6)C)N7CC8(C7)CCOCC8

> <PUBCHEM_OPENEYE_ISO_SMILES>
CC1=C(C(=CC=C1)F)NC(=O)C2=CC3=C(S2)C4=CC=CC=C4N(CC3)C(=O)C5=CC=C(C=C5)NC(=O)C6=C(N=CC(=C6)C)N7CC8(C7)CCOCC8

> <PUBCHEM_CACTVS_TPSA>
132

> <PUBCHEM_MONOISOTOPIC_WEIGHT>
715.26285405

> <PUBCHEM_TOTAL_CHARGE>
0

> <PUBCHEM_HEAVY_ATOM_COUNT>
52

> <PUBCHEM_ATOM_DEF_STEREO_COUNT>
0

> <PUBCHEM_ATOM_UDEF_STEREO_COUNT>
0

> <PUBCHEM_BOND_DEF_STEREO_COUNT>
0

> <PUBCHEM_BOND_UDEF_STEREO_COUNT>
0

> <PUBCHEM_ISOTOPIC_ATOM_COUNT>
0

> <PUBCHEM_COMPONENT_COUNT>
1

> <PUBCHEM_CACTVS_TAUTO_COUNT>
-1

> <PUBCHEM_COORDINATE_TYPE>
1
5
255

> <PUBCHEM_BONDANNOTATIONS>
1  38  8
1  41  8
19  20  8
20  21  8
21  24  8
22  24  8
26  27  8
26  28  8
27  30  8
28  31  8
29  30  8
29  31  8
34  38  8
34  39  8
35  37  8
35  40  8
37  42  8
39  41  8
40  43  8
42  44  8
43  44  8
46  47  8
46  48  8
47  49  8
48  51  8
49  52  8
51  52  8
8  19  8
8  22  8

$$$$
